
     Program BANDS v.6.7MaX starts on 23Sep2021 at  0:33:58 

     This program is part of the open-source Quantum ESPRESSO suite
     for quantum simulation of materials; please cite
         "P. Giannozzi et al., J. Phys.:Condens. Matter 21 395502 (2009);
         "P. Giannozzi et al., J. Phys.:Condens. Matter 29 465901 (2017);
          URL http://www.quantum-espresso.org", 
     in publications or presentations arising from this work. More details at
     http://www.quantum-espresso.org/quote

     Parallel version (MPI & OpenMP), running on       4 processor cores
     Number of MPI processes:                 1
     Threads/MPI process:                     4

     MPI processes distributed on     1 nodes

     Reading xml data from directory:

     ./outdir/Graphene_1x1_PBE.save/

     IMPORTANT: XC functional enforced from input :
     Exchange-correlation= PBE
                           (   1   4   3   4   0   0   0)
     Any further DFT definition will be discarded
     Please, verify this is what you really want


     G-vector sticks info
     --------------------
     sticks:   dense  smooth     PW     G-vecs:    dense   smooth      PW
     Sum         301     121     37                12531     3147     647


     Check: negative core charge=   -0.000041

     negative rho (up, down):  5.164E-06 0.000E+00
     Reading collected, re-writing distributed wavefunctions
     high-symmetry point:  0.0000 0.0000 0.0000   x coordinate   0.0000
     high-symmetry point:  0.0000 0.4811 0.0000   x coordinate   0.4811
     high-symmetry point:  0.0000-0.5774 0.0000   x coordinate   0.4811
     high-symmetry point:  0.0833 0.1443 0.0000   x coordinate   0.4811
     high-symmetry point:  0.0833 0.5292 0.0000   x coordinate   0.8660
     high-symmetry point:  0.1667 0.2887 0.0000   x coordinate   1.1206
     high-symmetry point:  0.1667 0.5774 0.0000   x coordinate   1.4093
     high-symmetry point:  0.2500 0.4330 0.0000   x coordinate   1.5760
     high-symmetry point:  0.2500 0.5292 0.0000   x coordinate   1.6722
     high-symmetry point:  0.3333 0.5774 0.0000   x coordinate   1.7684

     Plottable bands (eV) written to file graphene.bands.dat.gnu
     Bands written to file graphene.bands.dat

 **************************************************************************

                    xk=(   0.00000,   0.00000,   0.00000  )

     point group D_6h(6/mmm)
     there are 12 classes
     the character table:

       E     2C6   2C3   C2    3C2'  3C2'' i     2S3   2S6   s_h   3s_d  3s_v 
A_1g   1.00  1.00  1.00  1.00  1.00  1.00  1.00  1.00  1.00  1.00  1.00  1.00
A_2g   1.00  1.00  1.00  1.00 -1.00 -1.00  1.00  1.00  1.00  1.00 -1.00 -1.00
B_1g   1.00 -1.00  1.00 -1.00  1.00 -1.00  1.00 -1.00  1.00 -1.00  1.00 -1.00
B_2g   1.00 -1.00  1.00 -1.00 -1.00  1.00  1.00 -1.00  1.00 -1.00 -1.00  1.00
E_1g   2.00  1.00 -1.00 -2.00  0.00  0.00  2.00  1.00 -1.00 -2.00  0.00  0.00
E_2g   2.00 -1.00 -1.00  2.00  0.00  0.00  2.00 -1.00 -1.00  2.00  0.00  0.00
A_1u   1.00  1.00  1.00  1.00  1.00  1.00 -1.00 -1.00 -1.00 -1.00 -1.00 -1.00
A_2u   1.00  1.00  1.00  1.00 -1.00 -1.00 -1.00 -1.00 -1.00 -1.00  1.00  1.00
B_1u   1.00 -1.00  1.00 -1.00  1.00 -1.00 -1.00  1.00 -1.00  1.00 -1.00  1.00
B_2u   1.00 -1.00  1.00 -1.00 -1.00  1.00 -1.00  1.00 -1.00  1.00  1.00 -1.00
E_1u   2.00  1.00 -1.00 -2.00  0.00  0.00 -2.00 -1.00  1.00  2.00  0.00  0.00
E_2u   2.00 -1.00 -1.00  2.00  0.00  0.00 -2.00  1.00  1.00 -2.00  0.00  0.00

     the symmetry operations in each class and the name of the first element:

     E        1
                                                                 
     2C6      5    6
                                                                 
     2C3      7    8
                                                                 
     C2       2
                                                                 
     3C2'     4   12   11
                                                                 
     3C2''    3    9   10
                                                                 
     i       13
                                                                 
     2S3     17   18
                                                                 
     2S6     19   20
                                                                 
     s_h     14
                                                                 
     3s_d    16   24   23
                                                                 
     3s_v    15   21   22
                                                                 

     Band symmetry, D_6h(6/mmm) point group:

     e(  1 -  1) =    -18.90544  eV     1   --> A_1g           
     e(  2 -  2) =     -6.65917  eV     1   --> A_2u           
     e(  3 -  4) =     -2.02449  eV     2   --> E_2g           
     e(  5 -  5) =      3.48986  eV     1   --> A_1g           
     e(  6 -  6) =      7.04152  eV     1   --> A_2u           
     e(  7 -  7) =      9.06599  eV     1   --> A_1g           
     e(  8 -  8) =      9.54999  eV     1   -->   ?

 **************************************************************************

 **************************************************************************

                    xk=(   0.00000,   0.09623,   0.00000  )

     point group C_2v (mm2) 
     there are  4 classes
     the character table:

       E     C2    s_v   s_v' 
A_1    1.00  1.00  1.00  1.00
A_2    1.00  1.00 -1.00 -1.00
B_1    1.00 -1.00  1.00 -1.00
B_2    1.00 -1.00 -1.00  1.00

     the symmetry operations in each class and the name of the first element:

     E        1
                                                                 
     C2       2
                                                                 
     s_v      3
                                                                 
     s_v'     4
                                                                 

     Band symmetry, C_2v (mm2)  point group:

     e(  1 -  1) =    -18.73834  eV     1   --> A_1  D_1  S_1  
     e(  2 -  2) =     -6.48526  eV     1   --> B_2  D_4  S_4  
     e(  3 -  3) =     -2.76355  eV     1   --> A_1  D_1  S_1  
     e(  4 -  4) =     -2.37762  eV     1   --> B_1  D_3  S_3  
     e(  5 -  5) =      3.71494  eV     1   --> A_1  D_1  S_1  
     e(  6 -  6) =      7.24906  eV     1   --> B_2  D_4  S_4  
     e(  7 -  7) =      9.24343  eV     1   --> A_1  D_1  S_1  
     e(  8 -  8) =      9.56998  eV     1   --> A_1  D_1  S_1  

 **************************************************************************

 **************************************************************************

                    xk=(   0.00000,   0.19245,   0.00000  )

     Band symmetry, C_2v (mm2)  point group:

     e(  1 -  1) =    -18.23935  eV     1   --> A_1  D_1  S_1  
     e(  2 -  2) =     -5.89882  eV     1   --> B_2  D_4  S_4  
     e(  3 -  3) =     -4.39450  eV     1   --> A_1  D_1  S_1  
     e(  4 -  4) =     -3.22312  eV     1   --> B_1  D_3  S_3  
     e(  5 -  5) =      4.38973  eV     1   --> A_1  D_1  S_1  
     e(  6 -  6) =      7.88626  eV     1   --> B_2  D_4  S_4  
     e(  7 -  7) =      9.31759  eV     1   --> A_1  D_1  S_1  
     e(  8 -  8) =      9.98387  eV     1   --> A_1  D_1  S_1  

 **************************************************************************

 **************************************************************************

                    xk=(   0.00000,   0.28868,   0.00000  )

     Band symmetry, C_2v (mm2)  point group:

     e(  1 -  1) =    -17.41501  eV     1   --> A_1  D_1  S_1  
     e(  2 -  2) =     -6.53691  eV     1   --> A_1  D_1  S_1  
     e(  3 -  3) =     -4.93963  eV     1   --> B_2  D_4  S_4  
     e(  4 -  4) =     -4.12234  eV     1   --> B_1  D_3  S_3  
     e(  5 -  5) =      5.51309  eV     1   --> A_1  D_1  S_1  
     e(  6 -  6) =      8.32001  eV     1   --> B_2  D_4  S_4  
     e(  7 -  7) =      8.99977  eV     1   --> A_1  D_1  S_1  
     e(  8 -  8) =      9.06670  eV     1   --> B_2  D_4  S_4  

 **************************************************************************

 **************************************************************************

                    xk=(   0.00000,   0.38490,   0.00000  )

     Band symmetry, C_2v (mm2)  point group:

     e(  1 -  1) =    -16.28275  eV     1   --> A_1  D_1  S_1  
     e(  2 -  2) =     -8.78004  eV     1   --> A_1  D_1  S_1  
     e(  3 -  3) =     -4.86869  eV     1   --> B_1  D_3  S_3  
     e(  4 -  4) =     -3.65975  eV     1   --> B_2  D_4  S_4  
     e(  5 -  5) =      6.01085  eV     1   --> B_2  D_4  S_4  
     e(  6 -  6) =      7.07961  eV     1   --> A_1  D_1  S_1  
     e(  7 -  7) =      8.56254  eV     1   --> A_1  D_1  S_1  
     e(  8 -  8) =     10.45729  eV     1   --> B_2  D_4  S_4  

 **************************************************************************

 **************************************************************************

                    xk=(   0.00000,   0.48113,   0.00000  )

     Band symmetry, C_2v (mm2)  point group:

     e(  1 -  1) =    -14.86670  eV     1   --> A_1  D_1  S_1  
     e(  2 -  2) =    -10.95286  eV     1   --> A_1  D_1  S_1  
     e(  3 -  3) =     -5.32619  eV     1   --> B_1  D_3  S_3  
     e(  4 -  4) =     -2.18232  eV     1   --> B_2  D_4  S_4  
     e(  5 -  5) =      3.83445  eV     1   --> B_2  D_4  S_4  
     e(  6 -  6) =      8.26502  eV     1   --> A_1  D_1  S_1  
     e(  7 -  7) =      9.09834  eV     1   --> A_1  D_1  S_1  
     e(  8 -  8) =     12.27662  eV     1   --> B_2  D_4  S_4  

 **************************************************************************

 **************************************************************************

                    xk=(   0.00000,  -0.57735,   0.00000  )

     zone border point and non-symmorphic group 
     symmetry decomposition not available

 **************************************************************************

 **************************************************************************

                    xk=(   0.08333,   0.14434,   0.00000  )

     point group C_2v (mm2) 
     there are  4 classes
     the character table:

       E     C2    s_v   s_v' 
A_1    1.00  1.00  1.00  1.00
A_2    1.00  1.00 -1.00 -1.00
B_1    1.00 -1.00  1.00 -1.00
B_2    1.00 -1.00 -1.00  1.00

     the symmetry operations in each class and the name of the first element:

     E        1
                                                                 
     C2       2
                                                                 
     s_v      3
                                                                 
     s_v'     4
                                                                 

     Band symmetry, C_2v (mm2)  point group:

     e(  1 -  1) =    -18.40358  eV     1   --> A_1  D_1  S_1  
     e(  2 -  2) =     -6.10900  eV     1   --> B_2  D_4  S_4  
     e(  3 -  3) =     -3.77016  eV     1   --> B_1  D_3  S_3  
     e(  4 -  4) =     -3.11579  eV     1   --> A_1  D_1  S_1  
     e(  5 -  5) =      4.16525  eV     1   --> A_1  D_1  S_1  
     e(  6 -  6) =      7.67140  eV     1   --> B_2  D_4  S_4  
     e(  7 -  7) =      9.60366  eV     1   --> A_1  D_1  S_1  
     e(  8 -  8) =      9.95478  eV     1   --> A_1  D_1  S_1  

 **************************************************************************

 **************************************************************************

                    xk=(   0.08333,   0.24056,   0.00000  )

     point group C_s (m)    
     there are  2 classes
     the character table:

       E     s    
A'     1.00  1.00
A''    1.00 -1.00

     the symmetry operations in each class and the name of the first element:

     E        1
                                                                 
     s        2
                                                                 

     Band symmetry, C_s (m)     point group:

     e(  1 -  1) =    -17.74751  eV     1   --> A'             
     e(  2 -  2) =     -5.53644  eV     1   --> A'             
     e(  3 -  3) =     -5.33651  eV     1   --> A''            
     e(  4 -  4) =     -4.11619  eV     1   --> A'             
     e(  5 -  5) =      5.06366  eV     1   --> A'             
     e(  6 -  6) =      8.49914  eV     1   --> A''            
     e(  7 -  7) =      9.29944  eV     1   --> A''            
     e(  8 -  8) =      9.81801  eV     1   --> A'             

 **************************************************************************

 **************************************************************************

                    xk=(   0.08333,   0.33679,   0.00000  )

     Band symmetry, C_s (m)     point group:

     e(  1 -  1) =    -16.76879  eV     1   --> A'             
     e(  2 -  2) =     -7.62501  eV     1   --> A'             
     e(  3 -  3) =     -4.99031  eV     1   --> A'             
     e(  4 -  4) =     -4.19817  eV     1   --> A''            
     e(  5 -  5) =      6.40961  eV     1   --> A'             
     e(  6 -  6) =      7.11474  eV     1   --> A''            
     e(  7 -  7) =      9.51183  eV     1   --> A'             
     e(  8 -  8) =      9.79692  eV     1   --> A''            

 **************************************************************************

 **************************************************************************

                    xk=(   0.08333,   0.43301,   0.00000  )

     Band symmetry, C_s (m)     point group:

     e(  1 -  1) =    -15.49044  eV     1   --> A'             
     e(  2 -  2) =     -9.82186  eV     1   --> A'             
     e(  3 -  3) =     -5.64381  eV     1   --> A'             
     e(  4 -  4) =     -2.79710  eV     1   --> A''            
     e(  5 -  5) =      4.81007  eV     1   --> A''            
     e(  6 -  6) =      8.19545  eV     1   --> A'             
     e(  7 -  7) =      9.15484  eV     1   --> A'             
     e(  8 -  8) =     11.40039  eV     1   --> A''            

 **************************************************************************

 **************************************************************************

                    xk=(   0.08333,   0.52924,   0.00000  )

     Band symmetry, C_s (m)     point group:

     e(  1 -  1) =    -13.99540  eV     1   --> A'             
     e(  2 -  2) =    -11.80890  eV     1   --> A'             
     e(  3 -  3) =     -5.97611  eV     1   --> A'             
     e(  4 -  4) =     -1.43284  eV     1   --> A''            
     e(  5 -  5) =      3.00023  eV     1   --> A''            
     e(  6 -  6) =      8.95306  eV     1   --> A'             
     e(  7 -  7) =     10.42053  eV     1   --> A'             
     e(  8 -  8) =     13.02074  eV     1   --> A'             

 **************************************************************************

 **************************************************************************

                    xk=(   0.16667,   0.28868,   0.00000  )

     point group C_2v (mm2) 
     there are  4 classes
     the character table:

       E     C2    s_v   s_v' 
A_1    1.00  1.00  1.00  1.00
A_2    1.00  1.00 -1.00 -1.00
B_1    1.00 -1.00  1.00 -1.00
B_2    1.00 -1.00 -1.00  1.00

     the symmetry operations in each class and the name of the first element:

     E        1
                                                                 
     C2       2
                                                                 
     s_v      3
                                                                 
     s_v'     4
                                                                 

     Band symmetry, C_2v (mm2)  point group:

     e(  1 -  1) =    -16.92932  eV     1   --> A_1  D_1  S_1  
     e(  2 -  2) =     -6.88813  eV     1   --> B_1  D_3  S_3  
     e(  3 -  3) =     -5.51773  eV     1   --> A_1  D_1  S_1  
     e(  4 -  4) =     -4.38428  eV     1   --> B_2  D_4  S_4  
     e(  5 -  5) =      6.18636  eV     1   --> A_1  D_1  S_1  
     e(  6 -  6) =      7.54928  eV     1   --> A_2  D_2  S_2  
     e(  7 -  7) =      9.53399  eV     1   --> B_2  D_4  S_4  
     e(  8 -  8) =     11.03124  eV     1   --> A_1  D_1  S_1  

 **************************************************************************

 **************************************************************************

                    xk=(   0.16667,   0.38490,   0.00000  )

     point group C_s (m)    
     there are  2 classes
     the character table:

       E     s    
A'     1.00  1.00
A''    1.00 -1.00

     the symmetry operations in each class and the name of the first element:

     E        1
                                                                 
     s        2
                                                                 

     Band symmetry, C_s (m)     point group:

     e(  1 -  1) =    -15.80690  eV     1   --> A'             
     e(  2 -  2) =     -8.66188  eV     1   --> A'             
     e(  3 -  3) =     -6.55877  eV     1   --> A'             
     e(  4 -  4) =     -3.10491  eV     1   --> A''            
     e(  5 -  5) =      5.55544  eV     1   --> A''            
     e(  6 -  6) =      7.75198  eV     1   --> A'             
     e(  7 -  7) =     10.86905  eV     1   --> A''            
     e(  8 -  8) =     11.23709  eV     1   --> A'             

 **************************************************************************

 **************************************************************************

                    xk=(   0.16667,   0.48113,   0.00000  )

     Band symmetry, C_s (m)     point group:

     e(  1 -  1) =    -14.41296  eV     1   --> A'             
     e(  2 -  2) =    -10.61749  eV     1   --> A'             
     e(  3 -  3) =     -7.16299  eV     1   --> A'             
     e(  4 -  4) =     -1.65492  eV     1   --> A''            
     e(  5 -  5) =      3.56674  eV     1   --> A''            
     e(  6 -  6) =      9.74907  eV     1   --> A'             
     e(  7 -  7) =     10.96990  eV     1   --> A'             
     e(  8 -  8) =     12.22972  eV     1   --> A''            

 **************************************************************************

 **************************************************************************

                    xk=(   0.16667,   0.57735,   0.00000  )

     zone border point and non-symmorphic group 
     symmetry decomposition not available

 **************************************************************************

 **************************************************************************

                    xk=(   0.25000,   0.43301,   0.00000  )

     Band symmetry, C_2v (mm2)  point group:

     e(  1 -  1) =    -14.55601  eV     1   --> A_1  D_1  S_1  
     e(  2 -  2) =     -9.74899  eV     1   --> B_1  D_3  S_3  
     e(  3 -  3) =     -8.05595  eV     1   --> A_1  D_1  S_1  
     e(  4 -  4) =     -1.74833  eV     1   --> B_2  D_4  S_4  
     e(  5 -  5) =      3.89813  eV     1   --> A_2  D_2  S_2  
     e(  6 -  6) =      9.52812  eV     1   --> A_1  D_1  S_1  
     e(  7 -  7) =     11.81069  eV     1   --> B_2  D_4  S_4  
     e(  8 -  8) =     13.32277  eV     1   --> A_1  D_1  S_1  

 **************************************************************************

 **************************************************************************

                    xk=(   0.25000,   0.52924,   0.00000  )

     point group C_s (m)    
     there are  2 classes
     the character table:

       E     s    
A'     1.00  1.00
A''    1.00 -1.00

     the symmetry operations in each class and the name of the first element:

     E        1
                                                                 
     s        2
                                                                 

     Band symmetry, C_s (m)     point group:

     e(  1 -  1) =    -13.12044  eV     1   --> A'             
     e(  2 -  2) =    -11.19425  eV     1   --> A'             
     e(  3 -  3) =     -8.78056  eV     1   --> A'             
     e(  4 -  4) =     -0.33877  eV     1   --> A''            
     e(  5 -  5) =      2.34421  eV     1   --> A''            
     e(  6 -  6) =     11.69554  eV     1   --> A'             
     e(  7 -  7) =     11.92355  eV     1   --> A''            
     e(  8 -  8) =     13.24429  eV     1   --> A'             

 **************************************************************************

 **************************************************************************

                    xk=(   0.33333,   0.57735,   0.00000  )

     zone border point and non-symmorphic group 
     symmetry decomposition not available

 **************************************************************************

     BANDS        :      1.98s CPU      1.14s WALL


   This run was terminated on:   0:33:59  23Sep2021            

=------------------------------------------------------------------------------=
   JOB DONE.
=------------------------------------------------------------------------------=
